      12
 i =        0, time =        0.000, E =      -361.4582466043
 Ti         2.8694573800        5.5773227500        5.6538723550
 Ti         6.8100526400        4.6444191600        5.3278715950
  O         4.8291012900        5.0989793800        5.3953945450
  O         2.3410438900        5.9213703500        7.1527010250
  O         7.6589561100        4.6622243300        6.7147028350
  O         6.0025213500        2.9697714800        4.7176246750
 Ti         4.9795543600        6.2889378400        3.8079951650
  O         4.5433021600        4.7807210600        2.8472989750
 Ti         4.3677802300        3.5634720100        4.2168283550
  O         2.7395653400        3.7427243300        4.9867123050
  O         3.4772554600        7.0302285200        4.4932001950
  O         6.7409113500        6.2579655000        4.2237104750
      12
 i =        1, time =        1.000, E =      -361.4589233347
 Ti         2.8698753767        5.5766722499        5.6534456260
 Ti         6.8091275474        4.6432310298        5.3263448089
  O         4.8361665010        5.0939615207        5.3986286349
  O         2.3482209481        5.9189484665        7.1541252806
  O         7.6621467850        4.6599374081        6.7201219288
  O         6.0023556113        2.9677916619        4.7214155144
 Ti         4.9762039336        6.2866918078        3.8070163935
  O         4.5389939230        4.7844831627        2.8448363922
 Ti         4.3671873003        3.5679837052        4.2160537046
  O         2.7376848830        3.7489836418        4.9849479074
  O         3.4800178650        7.0290130151        4.4983685288
  O         6.7403555113        6.2595995368        4.2199807982
      12
 i =        2, time =        2.000, E =      -361.4600910472
 Ti         2.8692329119        5.5760108479        5.6530548241
 Ti         6.8084343520        4.6420484111        5.3248433550
  O         4.8430661533        5.0890047870        5.4018194967
  O         2.3566881459        5.9165565508        7.1551337114
  O         7.6672202088        4.6576501329        6.7249514887
  O         6.0020817969        2.9663660551        4.7251852678
 Ti         4.9728855346        6.2843975432        3.8061216181
  O         4.5347182816        4.7882650774        2.8429229015
 Ti         4.3666501411        3.5725623651        4.2153319112
  O         2.7355260554        3.7552006670        4.9832156023
  O         3.4832850414        7.0272311061        4.5035299316
  O         6.7388480850        6.2612299218        4.2161925116
      12
 i =        3, time =        3.000, E =      -361.4617121926
 Ti         2.8675581651        5.5753414012        5.6526996474
 Ti         6.8079944895        4.6408749346        5.3234249560
  O         4.8497245277        5.0841666086        5.4049688940
  O         2.3666090785        5.9141986440        7.1557999970
  O         7.6738904615        4.6553432049        6.7290329890
  O         6.0016696560        2.9655202187        4.7288583499
 Ti         4.9696307895        6.2820739388        3.8053167646
  O         4.5304820601        4.7920281718        2.8415556348
 Ti         4.3661782731        3.5771858142        4.2146746618
  O         2.7332214983        3.7613430776        4.9814989982
  O         3.4870460776        7.0249235993        4.5087054438
  O         6.7363399319        6.2628278963        4.2123478046
      12
 i =        4, time =        4.000, E =      -361.4637093002
 Ti         2.8648916507        5.5746648207        5.6523700969
 Ti         6.8078241350        4.6397146432        5.3221437494
  O         4.8560764824        5.0794855772        5.4080794668
  O         2.3781513428        5.9118906583        7.1562099317
  O         7.6818117483        4.6529926642        6.7322215864
  O         6.0010916032        2.9652690871        4.7323648112
 Ti         4.9664696407        6.2797405602        3.8046066125
  O         4.5262945624        4.7957203917        2.8407213165
 Ti         4.3657791413        3.5818325554        4.2140942562
  O         2.7309232260        3.7673716191        4.9797891337
  O         3.4912845545        7.0221462380        4.5139093893
  O         6.7327974204        6.2643650413        4.2084333163
      12
 i =        5, time =        5.000, E =      -361.4659850185
 Ti         2.8612871392        5.5739804104        5.6520464837
 Ti         6.8079325753        4.6385718461        5.3210480144
  O         4.8620577466        5.0749908056        5.4111480215
  O         2.3914582668        5.9096699844        7.1564531936
  O         7.6905670430        4.6505800675        6.7343834850
  O         6.0003253819        2.9656159524        4.7356446499
 Ti         4.9634289016        6.2774168333        3.8039950044
  O         4.5221669261        4.7992793115        2.8403961103
 Ti         4.3654583502        3.5864820314        4.2136032307
  O         2.7288047458        3.7732451452        4.9780841300
  O         3.4959737755        7.0189710697        4.5191507891
  O         6.7282055076        6.2658139655        4.2044353683
      12
 i =        6, time =        6.000, E =      -361.4684392740
 Ti         2.8568121726        5.5732863824        5.6516998131
 Ti         6.8083208645        4.6374509675        5.3201782447
  O         4.8675992832        5.0707108803        5.4141594009
  O         2.4066403234        5.9075944789        7.1566290537
  O         7.6996705861        4.6481044187        6.7353918847
  O         5.9993563229        2.9665529797        4.7386496963
 Ti         4.9605333180        6.2751222248        3.8034842033
  O         4.5181100394        4.8026365736        2.8405462846
 Ti         4.3652200096        3.5911147965        4.2132139648
  O         2.7270490553        3.7789158489        4.9763869387
  O         3.5010711494        7.0154847801        4.5244328305
  O         6.7225699383        6.2671495748        4.2003519013
      12
 i =        7, time =        7.000, E =      -361.4710576356
 Ti         2.8515475633        5.5725804916        5.6512926343
 Ti         6.8089807370        4.6363564550        5.3195654848
  O         4.8726253227        5.0666781257        5.4170959537
  O         2.4237715472        5.9057159027        7.1568734749
  O         7.7085979462        4.6455869521        6.7351299344
  O         5.9981786122        2.9680625704        4.7413438666
 Ti         4.9578040031        6.2728756918        3.8030749376
  O         4.5141320770        4.8057225738        2.8411287859
 Ti         4.3650671431        3.5957126001        4.2129382816
  O         2.7258358291        3.7843311366        4.9747030478
  O         3.5065115164        7.0117816376        4.5297499292
  O         6.7159155111        6.2683512788        4.1961989597
      12
 i =        8, time =        8.000, E =      -361.4739842201
 Ti         2.8455854140        5.5718608617        5.6507808107
 Ti         6.8098938983        4.6352927207        5.3192299615
  O         4.8770595419        5.0629274971        5.4199477876
  O         2.4429356978        5.9040425679        7.1573866721
  O         7.7168336540        4.6430627357        6.7335038059
  O         5.9967956050        2.9701190031        4.7437025434
 Ti         4.9552579368        6.2706952901        3.8027661902
  O         4.5102360775        4.8084705424        2.8420923784
 Ti         4.3650021126        3.6002583246        4.2127870389
  O         2.7253279499        3.7894358099        4.9730375704
  O         3.5122050132        7.0079512434        4.5350876318
  O         6.7082795015        6.2694067948        4.1920036159
      12
 i =        9, time =        9.000, E =      -361.4775052487
 Ti         2.8390256779        5.5711269876        5.6501165668
 Ti         6.8110314016        4.6342641028        5.3191800464
  O         4.8808353414        5.0594924663        5.4227056685
  O         2.4642900234        5.9025525499        7.1584014734
  O         7.7239112435        4.6405673289        6.7304579128
  O         5.9952195058        2.9726901177        4.7457116455
 Ti         4.9529073259        6.2685978146        3.8025550321
  O         4.5064173657        4.8108197909        2.8433782766
 Ti         4.3650270183        3.6047358153        4.2127697877
  O         2.7256581937        3.7941739232        4.9713937826
  O         3.5180432027        7.0040654168        4.5404272740
  O         6.6997070915        6.2703176839        4.1877911688
      12
 i =       10, time =       10.000, E =      -361.4818096012
 Ti         2.8319716119        5.5703807682        5.6492524751
 Ti         6.8123532445        4.6332749244        5.3194115351
  O         4.8838966439        5.0564013274        5.4253622692
  O         2.4880590962        5.9012637630        7.1600955105
  O         7.7294334910        4.6381289183        6.7259837366
  O         5.9934706965        2.9757388674        4.7473666507
 Ti         4.9507588599        6.2665985165        3.8024364581
  O         4.5026645239        4.8127175096        2.8449213525
 Ti         4.3651440586        3.6091296340        4.2128944598
  O         2.7269167071        3.7984907863        4.9697730325
  O         3.5239124527        7.0001715392        4.5457554687
  O         6.6902652704        6.2711042728        4.1835776726
      12
 i =       11, time =       11.000, E =      -361.4869481397
 Ti         2.8245239821        5.5696272860        5.6481453539
 Ti         6.8138083704        4.6323295343        5.3199069409
  O         4.8862018011        5.0536747561        5.4279117308
  O         2.5143853392        5.9002428694        7.1625724194
  O         7.7330787532        4.6357684647        6.7201180674
  O         5.9915769655        2.9792244547        4.7486715192
 Ti         4.9488129985        6.2647107196        3.8024032141
  O         4.4989587279        4.8141195691        2.8466521098
 Ti         4.3653558802        3.6134248638        4.2131670926
  O         2.7291406154        3.8023350390        4.9681764523
  O         3.5297064783        6.9962956680        4.5510726909
  O         6.6800397464        6.2718060135        4.1793741604
      12
 i =       12, time =       12.000, E =      -361.4929342539
 Ti         2.8167746759        5.5688754938        5.6467606767
 Ti         6.8153349621        4.6314323757        5.3206347638
  O         4.8877240212        5.0513259996        5.4303481423
  O         2.5433379540        5.8994848665        7.1659682895
  O         7.7346591431        4.6335014226        6.7129357542
  O         5.9895728995        2.9831028730        4.7496373307
 Ti         4.9470632867        6.2629454384        3.8024455880
  O         4.4952744009        4.8149909084        2.8484970818
 Ti         4.3656658390        3.6176068827        4.2135916314
  O         2.7323064977        3.8056598166        4.9666074991
  O         3.5353311926        6.9924600773        4.5563958713
  O         6.6691767426        6.2724734039        4.1752031664
      12
 i =       13, time =       13.000, E =      -361.4995906075
 Ti         2.8088016070        5.5681388182        5.6450779498
 Ti         6.8168613316        4.6305881543        5.3215489148
  O         4.8884504969        5.0493627344        5.4326650474
  O         2.5749757341        5.8989183219        7.1704189852
  O         7.7341602679        4.6313399870        6.7045464478
  O         5.9874996208        2.9873268602        4.7502809054
 Ti         4.9454959118        6.2613110889        3.8025512680
  O         4.4915834697        4.8153061199        2.8503815969
 Ti         4.3660781069        3.6216611358        4.2141698012
  O         2.7363226095        3.8084227940        4.9650753288
  O         3.5407040465        6.9886898592        4.5617563646
  O         6.6579004663        6.2731494574        4.1711145329
      12
 i =       14, time =       14.000, E =      -361.5062520669
 Ti         2.8006650485        5.5674352837        5.6430954755
 Ti         6.8183071271        4.6298021363        5.3225884188
  O         4.8883816078        5.0477874629        5.4348555822
  O         2.6092032810        5.8985608045        7.1759221418
  O         7.7318068930        4.6292941416        6.6951223152
  O         5.9854046216        2.9918452142        4.7506233785
 Ti         4.9440897482        6.2598133200        3.8027054416
  O         4.4878522041        4.8150503509        2.8522325246
 Ti         4.3665976936        3.6255728998        4.2149010543
  O         2.7410254036        3.8105855440        4.9635965424
  O         3.5457481131        6.9850214972        4.5671945926
  O         6.6464888832        6.2738443547        4.1671826381
      12
 i =       15, time =       15.000, E =      -361.5120925356
 Ti         2.7924071382        5.5667870156        5.6408339187
 Ti         6.8195855723        4.6290801980        5.3236778420
  O         4.8875303509        5.0465992147        5.4369099229
  O         2.6457184180        5.8983758934        7.1824378983
  O         7.7281058130        4.6273747668        6.6848808921
  O         5.9833416615        2.9966018041        4.7506886060
 Ti         4.9428170261        6.2584547717        3.8028912315
  O         4.4840317025        4.8142207166        2.8539801510
 Ti         4.3672303467        3.6293272744        4.2157827204
  O         2.7461830010        3.8121135218        4.9621958385
  O         3.5503869631        6.9815152424        4.5727548759
  O         6.6352090412        6.2745371145        4.1634795564
      12
 i =       16, time =       16.000, E =      -361.5161614512
 Ti         2.7840561142        5.5662194182        5.6383388838
 Ti         6.8206063422        4.6284289750        5.3247292132
  O         4.8859212021        5.0457958100        5.4388148116
  O         2.6839987216        5.8982706848        7.1898527954
  O         7.7238433630        4.6255954004        6.6741034800
  O         5.9813707517        3.0015350438        4.7505013816
 Ti         4.9416441658        6.2572352289        3.8030903599
  O         4.4800688485        4.8128279340        2.8555588943
 Ti         4.3679820188        3.6329092335        4.2168102700
  O         2.7515298753        3.8129770515        4.9609046847
  O         3.5545422105        6.9782304574        4.5784816759
  O         6.6242778587        6.2752034024        4.1600565709
      12
 i =       17, time =       17.000, E =      -361.5176558245
 Ti         2.7756346463        5.5657597185        5.6356800058
 Ti         6.8212795485        4.6278559787        5.3256463309
  O         4.8835887879        5.0453755687        5.4405537755
  O         2.7232930649        5.8982635142        7.1980374942
  O         7.7200346207        4.6239703495        6.6631177172
  O         5.9795574834        3.0065792832        4.7500856003
 Ti         4.9405326396        6.2561519030        3.8032838484
  O         4.4759278467        4.8108981493        2.8569074604
 Ti         4.3688580316        3.6363037751        4.2179777527
  O         2.7567800649        3.8131541579        4.9597582531
  O         3.5581363997        6.9752209625        4.5844159464
  O         6.6138674242        6.2758379106        4.1569517060
      12
 i =       18, time =       18.000, E =      -361.5166669662
 Ti         2.7671710696        5.5654354310        5.6329499626
 Ti         6.8215207729        4.6273695463        5.3263316646
  O         4.8805765271        5.0453371679        5.4421059621
  O         2.7627034560        5.8982408516        7.2066755070
  O         7.7177724187        4.6225071825        6.6522790544
  O         5.9779713422        3.0116668640        4.7494628959
 Ti         4.9394398421        6.2551998302        3.8034527960
  O         4.4715888263        4.8084746169        2.8579693415
 Ti         4.3698621034        3.6394963218        4.2192782750
  O         2.7616583212        3.8126338188        4.9587923188
  O         3.5610960276        6.9725290907        4.5905952156
  O         6.6041458432        6.2764604290        4.1542073972
      12
 i =       19, time =       19.000, E =      -361.5136235195
 Ti         2.7587120529        5.5652720561        5.6302574742
 Ti         6.8212568079        4.6269790215        5.3266959142
  O         4.8769348465        5.0456802593        5.4434486332
  O         2.8014444806        5.8982117159        7.2155151847
  O         7.7180641709        4.6211987967        6.6419199546
  O         5.9766836338        3.0167309651        4.7486512270
 Ti         4.9383202395        6.2543726185        3.8035791736
  O         4.4670480379        4.8056185556        2.8586940677
 Ti         4.3709950177        3.6424730251        4.2207044600
  O         2.7659306802        3.8114195077        4.9580417982
  O         3.5633607606        6.9701841485        4.5970457718
  O         6.5952840740        6.2771077689        4.1518786521
      12
 i =       20, time =       20.000, E =      -361.5096016569
 Ti         2.7503328047        5.5652915666        5.6277207682
 Ti         6.8204318127        4.6266946106        5.3266685644
  O         4.8727195022        5.0464040432        5.4445569637
  O         2.8386391183        5.8981031097        7.2241955644
  O         7.7216371849        4.6200221510        6.6322870631
  O         5.9757647341        3.0216929367        4.7476645090
 Ti         4.9371270547        6.2536630332        3.8036466981
  O         4.4623211679        4.8024084769        2.8590377775
 Ti         4.3722534338        3.6452211971        4.2222490189
  O         2.7694318224        3.8095297548        4.9575403152
  O         3.5648866048        6.9681976609        4.6037808333
  O         6.5874711684        6.2778196979        4.1500263253
      12
 i =       21, time =       21.000, E =      -361.5055921230
 Ti         2.7421437066        5.5655107184        5.6254589609
 Ti         6.8190123751        4.6265273243        5.3262072213
  O         4.8679884205        5.0475066169        5.4454066871
  O         2.8738778538        5.8978295955        7.2323771842
  O         7.7288204593        4.6189463257        6.6235083858
  O         5.9752816142        3.0264914943        4.7465124705
 Ti         4.9358144064        6.2530638048        3.8036417777
  O         4.4574457173        4.7989362117        2.8589636571
 Ti         4.3736289861        3.6477296662        4.2239051093
  O         2.7720832709        3.8069972040        4.9573190367
  O         3.5656494658        6.9665679133        4.6107918431
  O         6.5808937731        6.2786260834        4.1487039701
      12
 i =       22, time =       22.000, E =      -361.5016518221
 Ti         2.7342905540        5.5659403624        5.6235844862
 Ti         6.8169907918        4.6264888368        5.3253032028
  O         4.8628045784        5.0489842256        5.4459757356
  O         2.9066760913        5.8973956945        7.2397123793
  O         7.7395200470        4.6179441970        6.6155980530
  O         5.9752963925        3.0310732620        4.7452013900
 Ti         4.9343400515        6.2525682813        3.8035543570
  O         4.4524784468        4.7952986373        2.8584422613
 Ti         4.3751077982        3.6499888709        4.2256664758
  O         2.7739038411        3.8038665806        4.9574066403
  O         3.5656427202        6.9652842320        4.6180489135
  O         6.5757115189        6.2795409963        4.1479479130
      12
 i =       23, time =       23.000, E =      -361.4981730370
 Ti         2.7269493496        5.5665848914        5.6221969935
 Ti         6.8143855012        4.6265912555        5.3239818240
  O         4.8572311489        5.0508304886        5.4462450371
  O         2.9367441292        5.8966574993        7.2459898306
  O         7.7533119325        4.6170053298        6.6084840355
  O         5.9758659803        3.0353906775        4.7437346595
 Ti         4.9326680985        6.2521707200        3.8033786078
  O         4.4474879614        4.7915867944        2.8574518062
 Ti         4.3766706525        3.6519911184        4.2275273987
  O         2.7750118603        3.8001920223        4.9578299238
  O         3.5648718774        6.9643331214        4.6255007374
  O         6.5720366182        6.2805641077        4.1477751152
      12
 i =       24, time =       24.000, E =      -361.4947583870
 Ti         2.7203155705        5.5674424993        5.6213800223
 Ti         6.8112390640        4.6268470840        5.3222983577
  O         4.8513287357        5.0530381977        5.4462011821
  O         2.9639794401        5.8955815517        7.2509760131
  O         7.7694800071        4.6161463188        6.6019982003
  O         5.9770416157        3.0394028166        4.7421144163
 Ti         4.9307713961        6.2518667455        3.8031133020
  O         4.4425434958        4.7878767778        2.8559788621
 Ti         4.3782938014        3.6537303192        4.2294823789
  O         2.7756191667        3.7960343636        4.9586135705
  O         3.5633497067        6.9637024605        4.6330769355
  O         6.5699230740        6.2816853485        4.1481863904
      12
 i =       25, time =       25.000, E =      -361.4910816884
 Ti         2.7145895207        5.5685056631        5.6211989762
 Ti         6.8076136311        4.6272689781        5.3203301205
  O         4.8451571199        5.0556003063        5.4458369072
  O         2.9882107035        5.8941666500        7.2544693124
  O         7.7870557853        4.6154009824        6.5958880448
  O         5.9788688362        3.0430739106        4.7403427188
 Ti         4.9286332209        6.2516533176        3.8027618862
  O         4.4377055039        4.7842265351        2.8540193966
 Ti         4.3799503548        3.6552020168        4.2315256401
  O         2.7760125564        3.7914578463        4.9597799772
  O         3.5610945675        6.9633845213        4.6406938470
  O         6.5693638121        6.2828896077        4.1491702038
      12
 i =       26, time =       26.000, E =      -361.4871818952
 Ti         2.7099611342        5.5697615032        5.6217005673
 Ti         6.8035843163        4.6278695442        5.3181661323
  O         4.8387750893        5.0585146240        5.4451518883
  O         3.0093325949        5.8923464683        7.2564105693
  O         7.8049167216        4.6147776084        6.5899254500
  O         5.9813873323        3.0463737857        4.7384218014
 Ti         4.9262480504        6.2515285774        3.8023322172
  O         4.4330213649        4.7806780136        2.8515797885
 Ti         4.3816121472        3.6564031326        4.2336505446
  O         2.7765226930        3.7865271145        4.9613499016
  O         3.5581313849        6.9633772486        4.6482609848
  O         6.5702920324        6.2841595800        4.1507047448
      12
 i =       27, time =       27.000, E =      -361.4834631378
 Ti         2.7065955335        5.5711923772        5.6229133061
 Ti         6.7992316867        4.6286611833        5.3158972042
  O         4.8322411143        5.0617846963        5.4441531044
  O         3.0273014072        5.8900849099        7.2567684866
  O         7.8220353925        4.6142422076        6.5839448983
  O         5.9846297119        3.0492779147        4.7363537356
 Ti         4.9236213872        6.2514916271        3.8018360075
  O         4.4285257568        4.7772623139        2.8486777865
 Ti         4.3832517732        3.6573316061        4.2358490056
  O         2.7774850907        3.7813044706        4.9633409767
  O         3.5544973038        6.9636829982        4.6556875329
  O         6.5725842290        6.2854768585        4.1527578081
      12
 i =       28, time =       28.000, E =      -361.4804528547
 Ti         2.7046241243        5.5727764143        5.6248479430
 Ti         6.7946353042        4.6296560573        5.3136086863
  O         4.8256157576        5.0654156781        5.4428540040
  O         3.0420693373        5.8874000158        7.2555140973
  O         7.8376524862        4.6137715628        6.5777792021
  O         5.9886186859        3.0517668649        4.7341398140
 Ti         4.9207686824        6.2515422319        3.8012880172
  O         4.4242435058        4.7740052805        2.8453434752
 Ti         4.3848445667        3.6579861428        4.2381109328
  O         2.7792040258        3.7758479851        4.9657647699
  O         3.5502439936        6.9643051363        4.6628886723
  O         6.5760638801        6.2868215658        4.1552846918
      12
 i =       29, time =       29.000, E =      -361.4785272877
 Ti         2.7041418633        5.5744879334        5.6274979455
 Ti         6.7898690289        4.6308659931        5.3113757016
  O         4.8189650532        5.0694072567        5.4412711581
  O         3.0536123135        5.8843206113        7.2526602026
  O         7.8512283606        4.6133848214        6.5712650041
  O         5.9933631863        3.0538255726        4.7317807044
 Ti         4.9177135058        6.2516804843        3.8007050959
  O         4.4201928504        4.7709319164        2.8416201135
 Ti         4.3863703806        3.6583659960        4.2404238133
  O         2.7819279157        3.7702079913        4.9686258333
  O         3.5454357634        6.9652442760        4.6697915268
  O         6.5805067592        6.2881708220        4.1582246604
      12
 i =       30, time =       30.000, E =      -361.4779057125
 Ti         2.7052086419        5.5762977170        5.6308395257
 Ti         6.7849976832        4.6323023327        5.3092604213
  O         4.8123637957        5.0737440926        5.4394210556
  O         3.0619342916        5.8808643151        7.2482817195
  O         7.8622863602        4.6131220295        6.5642965423
  O         5.9988527354        3.0554429072        4.7292776509
 Ti         4.9144852793        6.2519065644        3.8001051667
  O         4.4163883754        4.7680766844        2.8375641550
 Ti         4.3878150198        3.6584707301        4.2427724202
  O         2.7858367199        3.7644203176        4.9719213651
  O         3.5401424450        6.9664955008        4.6763376147
  O         6.5856519199        6.2894964504        4.1614973703
      12
 i =       31, time =       31.000, E =      -361.4787541033
 Ti         2.7078518221        5.5781730948        5.6348310476
 Ti         6.7800743691        4.6339756590        5.3073105344
  O         4.8058945983        5.0783885632        5.4373158710
  O         3.0670598607        5.8770500137        7.2425178172
  O         7.8704310438        4.6130032388        6.5568340367
  O         6.0050492060        3.0566116451        4.7266350860
 Ti         4.9111168504        6.2522206020        3.7995062488
  O         4.4128446177        4.7654741338        2.8332478158
 Ti         4.3891712933        3.6583000616        4.2451386437
  O         2.7910345280        3.7585022631        4.9756418785
  O         3.5344327938        6.9680473436        4.6824872590
  O         6.5912249633        6.2907643461        4.1650049322
      12
 i =       32, time =       32.000, E =      -361.4811191976
 Ti         2.7120685514        5.5800779075        5.6394118466
 Ti         6.7751389223        4.6358954728        5.3055588067
  O         4.7996405363        5.0832818348        5.4349593123
  O         3.0690313852        5.8728938349        7.2355733281
  O         7.8754331026        4.6130142939        6.5488633067
  O         6.0118775506        3.0573290669        4.7238646407
 Ti         4.9076422000        6.2526225935        3.7989256168
  O         4.4095775609        4.7631639824        2.8287573406
 Ti         4.3904396334        3.6578537666        4.2475014614
  O         2.7975435185        3.7524494599        4.9797744834
  O         3.5283741624        6.9698823329        4.6882095147
  O         6.5969687666        6.2919399492        4.1686456119
      12
 i =       33, time =       33.000, E =      -361.4848258458
 Ti         2.7178267406        5.5819721932        5.6445005500
 Ti         6.7702161020        4.6380696884        5.3040213678
  O         4.7936740248        5.0883549266        5.4323456852
  O         3.0679123691        5.8684347548        7.2277133775
  O         7.8772718258        4.6131269244        6.5403759228
  O         6.0192178548        3.0575985684        4.7209894617
 Ti         4.9040946065        6.2531124023        3.7983791364
  O         4.4066018046        4.7611884062        2.8242020740
 Ti         4.3916282777        3.6571316002        4.2498369870
  O         2.8052972207        3.7462563701        4.9843079404
  O         3.5220383193        6.9719822094        4.6934683611
  O         6.6026645152        6.2929955682        4.1723274713
      12
 i =       34, time =       34.000, E =      -361.4894887147
 Ti         2.7250643619        5.5838119937        5.6499929865
 Ti         6.7653166086        4.6405043382        5.3026999506
  O         4.7880489360        5.0935433273        5.4294635629
  O         3.0637968697        5.8637030516        7.2192778623
  O         7.8761222612        4.6133170819        6.5313723381
  O         6.0268991444        3.0574343642        4.7180466660
 Ti         4.9005054667        6.2536898939        3.7978808754
  O         4.4039319165        4.7595842701        2.8196898321
 Ti         4.3927529537        3.6561333403        4.2521186927
  O         2.8141388470        3.7398979483        4.9892391022
  O         3.5155084447        6.9743354728        4.6982085253
  O         6.6081277508        6.2939131928        4.1759723317
      12
 i =       35, time =       35.000, E =      -361.4945800532
 Ti         2.7336877742        5.5855493160        5.6557605657
 Ti         6.7604368195        4.6432030007        5.3015810957